<?xml version="1.0"?>
<VTKFile type="PolyData" version="0.1" byte_order="LittleEndian" header_type="UInt32" compressor="vtkZLibDataCompressor">
  <PolyData>
    <Piece NumberOfPoints="432" NumberOfVerts="0" NumberOfLines="0" NumberOfStrips="0" NumberOfPolys="856">
      <PointData Scalars="pbColors" Normals="Normals">
        <DataArray type="UInt8" Name="pbColors" NumberOfComponents="3" format="ascii" RangeMin="1" RangeMax="1">
          0 1 0 0 1 0
          0 1 0 0 1 0
          0 1 0 0 1 0
          0 1 0 0 1 0
          0 1 0 0 1 0
          0 1 0 0 1 0
          0 1 0 0 1 0
          0 1 0 0 1 0
          0 1 0 0 1 0
          0 1 0 0 1 0
          0 1 0 0 1 0
          0 1 0 0 1 0
          0 1 0 0 1 0
          0 1 0 0 1 0
          0 1 0 0 1 0
          0 1 0 0 1 0
          0 1 0 0 1 0
          0 1 0 0 1 0
          0 1 0 0 1 0
          0 1 0 0 1 0
          0 1 0 0 1 0
          0 1 0 0 1 0
          0 1 0 0 1 0
          0 1 0 0 1 0
          0 1 0 0 1 0
          0 1 0 0 1 0
          0 1 0 0 1 0
          0 1 0 0 1 0
          0 1 0 0 1 0
          0 1 0 0 1 0
          0 1 0 0 1 0
          0 1 0 0 1 0
          0 1 0 0 1 0
          0 1 0 0 1 0
          0 1 0 0 1 0
          0 1 0 0 1 0
          0 1 0 0 1 0
          0 1 0 0 1 0
          0 1 0 0 1 0
          0 1 0 0 1 0
          0 1 0 0 1 0
          0 1 0 0 1 0
          0 1 0 0 1 0
          0 1 0 0 1 0
          0 1 0 0 1 0
          0 1 0 0 1 0
          0 1 0 0 1 0
          0 1 0 0 1 0
          0 1 0 0 1 0
          0 1 0 0 1 0
          0 1 0 0 1 0
          0 1 0 0 1 0
          0 1 0 0 1 0
          0 1 0 0 1 0
          0 1 0 0 1 0
          0 1 0 0 1 0
          0 1 0 0 1 0
          0 1 0 0 1 0
          0 1 0 0 1 0
          0 1 0 0 1 0
          0 1 0 0 1 0
          0 1 0 0 1 0
          0 1 0 0 1 0
          0 1 0 0 1 0
          0 1 0 0 1 0
          0 1 0 0 1 0
          0 1 0 0 1 0
          0 1 0 0 1 0
          0 1 0 0 1 0
          0 1 0 0 1 0
          0 1 0 0 1 0
          0 1 0 0 1 0
          0 1 0 0 1 0
          0 1 0 0 1 0
          0 1 0 0 1 0
          0 1 0 0 1 0
          0 1 0 0 1 0
          0 1 0 0 1 0
          0 1 0 0 1 0
          0 1 0 0 1 0
          0 1 0 0 1 0
          0 1 0 0 1 0
          0 1 0 0 1 0
          0 1 0 0 1 0
          0 1 0 0 1 0
          0 1 0 0 1 0
          0 1 0 0 1 0
          0 1 0 0 1 0
          0 1 0 0 1 0
          0 1 0 0 1 0
          0 1 0 0 1 0
          0 1 0 0 1 0
          0 1 0 0 1 0
          0 1 0 0 1 0
          0 1 0 0 1 0
          0 1 0 0 1 0
          0 1 0 0 1 0
          0 1 0 0 1 0
          0 1 0 0 1 0
          0 1 0 0 1 0
          0 1 0 0 1 0
          0 1 0 0 1 0
          0 1 0 0 1 0
          0 1 0 0 1 0
          0 1 0 0 1 0
          0 1 0 0 1 0
          0 1 0 0 1 0
          0 1 0 0 1 0
          1 0 0 1 0 0
          1 0 0 1 0 0
          1 0 0 1 0 0
          1 0 0 1 0 0
          1 0 0 1 0 0
          1 0 0 1 0 0
          1 0 0 1 0 0
          1 0 0 1 0 0
          1 0 0 1 0 0
          1 0 0 1 0 0
          1 0 0 1 0 0
          1 0 0 1 0 0
          1 0 0 1 0 0
          1 0 0 1 0 0
          1 0 0 1 0 0
          1 0 0 1 0 0
          1 0 0 1 0 0
          1 0 0 1 0 0
          1 0 0 1 0 0
          1 0 0 1 0 0
          1 0 0 1 0 0
          1 0 0 1 0 0
          1 0 0 1 0 0
          1 0 0 1 0 0
          1 0 0 1 0 0
          1 0 0 1 0 0
          1 0 0 1 0 0
          1 0 0 1 0 0
          1 0 0 1 0 0
          1 0 0 1 0 0
          1 0 0 1 0 0
          1 0 0 1 0 0
          1 0 0 1 0 0
          1 0 0 1 0 0
          1 0 0 1 0 0
          1 0 0 1 0 0
          1 0 0 1 0 0
          1 0 0 1 0 0
          1 0 0 1 0 0
          1 0 0 1 0 0
          1 0 0 1 0 0
          1 0 0 1 0 0
          1 0 0 1 0 0
          1 0 0 1 0 0
          1 0 0 1 0 0
          1 0 0 1 0 0
          1 0 0 1 0 0
          1 0 0 1 0 0
          1 0 0 1 0 0
          1 0 0 1 0 0
          1 0 0 1 0 0
          1 0 0 1 0 0
          1 0 0 1 0 0
          1 0 0 1 0 0
          1 0 0 1 0 0
          1 0 0 1 0 0
          1 0 0 1 0 0
          1 0 0 1 0 0
          1 0 0 1 0 0
          1 0 0 1 0 0
          1 0 0 1 0 0
          1 0 0 1 0 0
          1 0 0 1 0 0
          1 0 0 1 0 0
          1 0 0 1 0 0
          1 0 0 1 0 0
          1 0 0 1 0 0
          1 0 0 1 0 0
          1 0 0 1 0 0
          1 0 0 1 0 0
          1 0 0 1 0 0
          1 0 0 1 0 0
          1 0 0 1 0 0
          1 0 0 1 0 0
          1 0 0 1 0 0
          1 0 0 1 0 0
          1 0 0 1 0 0
          1 0 0 1 0 0
          1 0 0 1 0 0
          1 0 0 1 0 0
          1 0 0 1 0 0
          1 0 0 1 0 0
          1 0 0 1 0 0
          1 0 0 1 0 0
          1 0 0 1 0 0
          1 0 0 1 0 0
          1 0 0 1 0 0
          1 0 0 1 0 0
          1 0 0 1 0 0
          1 0 0 1 0 0
          1 0 0 1 0 0
          1 0 0 1 0 0
          1 0 0 1 0 0
          1 0 0 1 0 0
          1 0 0 1 0 0
          1 0 0 1 0 0
          1 0 0 1 0 0
          1 0 0 1 0 0
          1 0 0 1 0 0
          1 0 0 1 0 0
          1 0 0 1 0 0
          1 0 0 1 0 0
          1 0 0 1 0 0
          1 0 0 1 0 0
          1 0 0 1 0 0
          1 0 0 1 0 0
          1 0 0 1 0 0
          1 0 0 1 0 0
        </DataArray>
        <DataArray type="Float32" Name="Normals" NumberOfComponents="3" format="ascii" RangeMin="1" RangeMax="1.0000000266">
          0.57732868195 0.57732868195 0.57739347219 0 0.707067132 0.70714646578
          0 0.707067132 0.70714646578 0 0.707067132 0.70714646578
          0 0.707067132 0.70714646578 -0.57732868195 0.57732868195 0.57739347219
          0.707067132 -0 0.70714646578 0 0 1
          0 0 1 0 0 1
          0 0 1 -0.707067132 0 0.70714646578
          0.707067132 -0 0.70714646578 0 0 1
          0 0 1 0 0 1
          0 0 1 -0.707067132 0 0.70714646578
          0.707067132 -0 0.70714646578 0 0 1
          0 0 1 0 0 1
          0 0 1 -0.707067132 0 0.70714646578
          0.707067132 -0 0.70714646578 0 0 1
          0 0 1 0 0 1
          0 0 1 -0.707067132 0 0.70714646578
          0.57732868195 -0.57732868195 0.57739347219 0 -0.707067132 0.70714646578
          0 -0.707067132 0.70714646578 0 -0.707067132 0.70714646578
          0 -0.707067132 0.70714646578 -0.57732868195 -0.57732868195 0.57739347219
          0.57732868195 0.57739347219 0.57732868195 0 0.70714646578 0.707067132
          0 0.70714646578 0.707067132 0 0.70714646578 0.707067132
          0 0.70714646578 0.707067132 -0.57732868195 0.57739347219 0.57732868195
          0.57739347219 0.57732868195 0.57732868195 -0.57739347219 0.57732868195 0.57732868195
          0.70714646578 -0 0.707067132 -0.70714646578 0 0.707067132
          0.70714646578 -0 0.707067132 -0.70714646578 0 0.707067132
          0.70714646578 -0 0.707067132 -0.70714646578 0 0.707067132
          0.70714646578 -0 0.707067132 -0.70714646578 0 0.707067132
          0.57739347219 -0.57732868195 0.57732868195 0.57732868195 -0.57739347219 0.57732868195
          0 -0.70714646578 0.707067132 0 -0.70714646578 0.707067132
          0 -0.70714646578 0.707067132 0 -0.70714646578 0.707067132
          -0.57739347219 -0.57732868195 0.57732868195 -0.57732868195 -0.57739347219 0.57732868195
          0.707067132 0.70714646578 0 -0 1 -0
          -0 1 -0 -0 1 -0
          -0 1 -0 -0.707067132 0.70714646578 -0
          0.70714646578 0.707067132 0 -0.70714646578 0.707067132 -0
          1 0 0 -1 0 0
          1 0 0 -1 0 0
          1 0 0 -1 0 0
          1 0 0 -1 0 0
          0.70714646578 -0.707067132 0 0.707067132 -0.70714646578 0
          0 -1 0 0 -1 0
          0 -1 0 0 -1 0
          -0.70714646578 -0.707067132 0 -0.707067132 -0.70714646578 0
          0.707067132 0.70714646578 0 -0 1 -0
          -0 1 -0 -0 1 -0
          -0 1 -0 -0.707067132 0.70714646578 -0
          0.70714646578 0.707067132 0 -0.70714646578 0.707067132 -0
          1 0 0 -1 0 0
          1 0 0 -1 0 0
          1 0 0 -1 0 0
          1 0 0 -1 0 0
          0.70714646578 -0.707067132 0 0.707067132 -0.70714646578 0
          0 -1 0 0 -1 0
          0 -1 0 0 -1 0
          -0.70714646578 -0.707067132 0 -0.707067132 -0.70714646578 0
          0.707067132 0.70714646578 0 -0 1 -0
          -0 1 -0 -0 1 -0
          -0 1 -0 -0.707067132 0.70714646578 -0
          0.70714646578 0.707067132 0 -0.70714646578 0.707067132 -0
          1 0 0 -1 0 0
          1 0 0 -1 0 0
          1 0 0 -1 0 0
          1 0 0 -1 0 0
          0.70714646578 -0.707067132 0 0.707067132 -0.70714646578 0
          0 -1 0 0 -1 0
          0 -1 0 0 -1 0
          -0.70714646578 -0.707067132 0 -0.707067132 -0.70714646578 0
          0.707067132 0.70714646578 0 -0 1 -0
          -0 1 -0 -0 1 -0
          -0 1 -0 -0.707067132 0.70714646578 -0
          0.70714646578 0.707067132 0 -0.70714646578 0.707067132 -0
          1 0 0 -1 0 0
          1 0 0 -1 0 0
          1 0 0 -1 0 0
          1 0 0 -1 0 0
          0.70714646578 -0.707067132 0 0.707067132 -0.70714646578 0
          0 -1 0 0 -1 0
          0 -1 0 0 -1 0
          -0.70714646578 -0.707067132 0 -0.707067132 -0.70714646578 0
          0.57732868195 0.57739347219 -0.57732868195 -0 0.70714646578 -0.707067132
          -0 0.70714646578 -0.707067132 -0 0.70714646578 -0.707067132
          -0 0.70714646578 -0.707067132 -0.57732868195 0.57739347219 -0.57732868195
          0.57739347219 0.57732868195 -0.57732868195 0.57732868195 0.57732868195 -0.57739347219
          -0 0.707067132 -0.70714646578 -0 0.707067132 -0.70714646578
          -0 0.707067132 -0.70714646578 -0 0.707067132 -0.70714646578
          -0.57739347219 0.57732868195 -0.57732868195 -0.57732868195 0.57732868195 -0.57739347219
          0.70714646578 0 -0.707067132 0.707067132 0 -0.70714646578
          0 0 -1 0 0 -1
          0 0 -1 0 0 -1
          -0.70714646578 0 -0.707067132 -0.707067132 0 -0.70714646578
          0.70714646578 0 -0.707067132 0.707067132 0 -0.70714646578
          0 0 -1 0 0 -1
          0 0 -1 0 0 -1
          -0.70714646578 0 -0.707067132 -0.707067132 0 -0.70714646578
          0.70714646578 0 -0.707067132 0.707067132 0 -0.70714646578
          0 0 -1 0 0 -1
          0 0 -1 0 0 -1
          -0.70714646578 0 -0.707067132 -0.707067132 0 -0.70714646578
          0.70714646578 0 -0.707067132 0.707067132 0 -0.70714646578
          0 0 -1 0 0 -1
          0 0 -1 0 0 -1
          -0.70714646578 0 -0.707067132 -0.707067132 0 -0.70714646578
          0.57739347219 -0.57732868195 -0.57732868195 0.57732868195 -0.57739347219 -0.57732868195
          0.57732868195 -0.57732868195 -0.57739347219 0 -0.70714646578 -0.707067132
          0 -0.707067132 -0.70714646578 0 -0.70714646578 -0.707067132
          0 -0.707067132 -0.70714646578 0 -0.70714646578 -0.707067132
          0 -0.707067132 -0.70714646578 0 -0.70714646578 -0.707067132
          0 -0.707067132 -0.70714646578 -0.57739347219 -0.57732868195 -0.57732868195
          -0.57732868195 -0.57739347219 -0.57732868195 -0.57732868195 -0.57732868195 -0.57739347219
          0.57732868195 0.57732868195 0.57739347219 0 0.707067132 0.70714646578
          0 0.707067132 0.70714646578 0 0.707067132 0.70714646578
          0 0.707067132 0.70714646578 -0.57732868195 0.57732868195 0.57739347219
          0.707067132 -0 0.70714646578 0 0 1
          0 0 1 0 0 1
          0 0 1 -0.707067132 0 0.70714646578
          0.707067132 -0 0.70714646578 0 0 1
          0 0 1 0 0 1
          0 0 1 -0.707067132 0 0.70714646578
          0.707067132 -0 0.70714646578 0 0 1
          0 0 1 0 0 1
          0 0 1 -0.707067132 0 0.70714646578
          0.707067132 -0 0.70714646578 0 0 1
          0 0 1 0 0 1
          0 0 1 -0.707067132 0 0.70714646578
          0.57732868195 -0.57732868195 0.57739347219 0 -0.707067132 0.70714646578
          0 -0.707067132 0.70714646578 0 -0.707067132 0.70714646578
          0 -0.707067132 0.70714646578 -0.57732868195 -0.57732868195 0.57739347219
          0.57732868195 0.57739347219 0.57732868195 0 0.70714646578 0.707067132
          0 0.70714646578 0.707067132 0 0.70714646578 0.707067132
          0 0.70714646578 0.707067132 -0.57732868195 0.57739347219 0.57732868195
          0.57739347219 0.57732868195 0.57732868195 -0.57739347219 0.57732868195 0.57732868195
          0.70714646578 -0 0.707067132 -0.70714646578 0 0.707067132
          0.70714646578 -0 0.707067132 -0.70714646578 0 0.707067132
          0.70714646578 -0 0.707067132 -0.70714646578 0 0.707067132
          0.70714646578 -0 0.707067132 -0.70714646578 0 0.707067132
          0.57739347219 -0.57732868195 0.57732868195 0.57732868195 -0.57739347219 0.57732868195
          0 -0.70714646578 0.707067132 0 -0.70714646578 0.707067132
          0 -0.70714646578 0.707067132 0 -0.70714646578 0.707067132
          -0.57739347219 -0.57732868195 0.57732868195 -0.57732868195 -0.57739347219 0.57732868195
          0.707067132 0.70714646578 0 -0 1 -0
          -0 1 -0 -0 1 -0
          -0 1 -0 -0.707067132 0.70714646578 -0
          0.70714646578 0.707067132 0 -0.70714646578 0.707067132 -0
          1 0 0 -1 0 0
          1 0 0 -1 0 0
          1 0 0 -1 0 0
          1 0 0 -1 0 0
          0.70714646578 -0.707067132 0 0.707067132 -0.70714646578 0
          0 -1 0 0 -1 0
          0 -1 0 0 -1 0
          -0.70714646578 -0.707067132 0 -0.707067132 -0.70714646578 0
          0.707067132 0.70714646578 0 -0 1 -0
          -0 1 -0 -0 1 -0
          -0 1 -0 -0.707067132 0.70714646578 -0
          0.70714646578 0.707067132 0 -0.70714646578 0.707067132 -0
          1 0 0 -1 0 0
          1 0 0 -1 0 0
          1 0 0 -1 0 0
          1 0 0 -1 0 0
          0.70714646578 -0.707067132 0 0.707067132 -0.70714646578 0
          0 -1 0 0 -1 0
          0 -1 0 0 -1 0
          -0.70714646578 -0.707067132 0 -0.707067132 -0.70714646578 0
          0.707067132 0.70714646578 0 -0 1 -0
          -0 1 -0 -0 1 -0
          -0 1 -0 -0.707067132 0.70714646578 -0
          0.70714646578 0.707067132 0 -0.70714646578 0.707067132 -0
          1 0 0 -1 0 0
          1 0 0 -1 0 0
          1 0 0 -1 0 0
          1 0 0 -1 0 0
          0.70714646578 -0.707067132 0 0.707067132 -0.70714646578 0
          0 -1 0 0 -1 0
          0 -1 0 0 -1 0
          -0.70714646578 -0.707067132 0 -0.707067132 -0.70714646578 0
          0.707067132 0.70714646578 0 -0 1 -0
          -0 1 -0 -0 1 -0
          -0 1 -0 -0.707067132 0.70714646578 -0
          0.70714646578 0.707067132 0 -0.70714646578 0.707067132 -0
          1 0 0 -1 0 0
          1 0 0 -1 0 0
          1 0 0 -1 0 0
          1 0 0 -1 0 0
          0.70714646578 -0.707067132 0 0.707067132 -0.70714646578 0
          0 -1 0 0 -1 0
          0 -1 0 0 -1 0
          -0.70714646578 -0.707067132 0 -0.707067132 -0.70714646578 0
          0.57732868195 0.57739347219 -0.57732868195 -0 0.70714646578 -0.707067132
          -0 0.70714646578 -0.707067132 -0 0.70714646578 -0.707067132
          -0 0.70714646578 -0.707067132 -0.57732868195 0.57739347219 -0.57732868195
          0.57739347219 0.57732868195 -0.57732868195 0.57732868195 0.57732868195 -0.57739347219
          -0 0.707067132 -0.70714646578 -0 0.707067132 -0.70714646578
          -0 0.707067132 -0.70714646578 -0 0.707067132 -0.70714646578
          -0.57739347219 0.57732868195 -0.57732868195 -0.57732868195 0.57732868195 -0.57739347219
          0.70714646578 0 -0.707067132 0.707067132 0 -0.70714646578
          0 0 -1 0 0 -1
          0 0 -1 0 0 -1
          -0.70714646578 0 -0.707067132 -0.707067132 0 -0.70714646578
          0.70714646578 0 -0.707067132 0.707067132 0 -0.70714646578
          0 0 -1 0 0 -1
          0 0 -1 0 0 -1
          -0.70714646578 0 -0.707067132 -0.707067132 0 -0.70714646578
          0.70714646578 0 -0.707067132 0.707067132 0 -0.70714646578
          0 0 -1 0 0 -1
          0 0 -1 0 0 -1
          -0.70714646578 0 -0.707067132 -0.707067132 0 -0.70714646578
          0.70714646578 0 -0.707067132 0.707067132 0 -0.70714646578
          0 0 -1 0 0 -1
          0 0 -1 0 0 -1
          -0.70714646578 0 -0.707067132 -0.707067132 0 -0.70714646578
          0.57739347219 -0.57732868195 -0.57732868195 0.57732868195 -0.57739347219 -0.57732868195
          0.57732868195 -0.57732868195 -0.57739347219 0 -0.70714646578 -0.707067132
          0 -0.707067132 -0.70714646578 0 -0.70714646578 -0.707067132
          0 -0.707067132 -0.70714646578 0 -0.70714646578 -0.707067132
          0 -0.707067132 -0.70714646578 0 -0.70714646578 -0.707067132
          0 -0.707067132 -0.70714646578 -0.57739347219 -0.57732868195 -0.57732868195
          -0.57732868195 -0.57739347219 -0.57732868195 -0.57732868195 -0.57732868195 -0.57739347219
        </DataArray>
      </PointData>
      <CellData>
      </CellData>
      <Points>
        <DataArray type="Float32" Name="Points" NumberOfComponents="3" format="ascii" RangeMin="0.023009087019" RangeMax="0.13343177044">
          -0.048112522811 -0.048112522811 -0.048113152385 -0.028867512941 -0.048112522811 -0.048113152385
          -0.0096225049347 -0.048112522811 -0.048113152385 0.0096225049347 -0.048112522811 -0.048113152385
          0.028867512941 -0.048112522811 -0.048113152385 0.048112522811 -0.048112522811 -0.048113152385
          -0.048112522811 -0.028867512941 -0.048113152385 -0.028867512941 -0.028867512941 -0.048113152385
          -0.0096225049347 -0.028867512941 -0.048113152385 0.0096225049347 -0.028867512941 -0.048113152385
          0.028867512941 -0.028867512941 -0.048113152385 0.048112522811 -0.028867512941 -0.048113152385
          -0.048112522811 -0.0096225049347 -0.048113152385 -0.028867512941 -0.0096225049347 -0.048113152385
          -0.0096225049347 -0.0096225049347 -0.048113152385 0.0096225049347 -0.0096225049347 -0.048113152385
          0.028867512941 -0.0096225049347 -0.048113152385 0.048112522811 -0.0096225049347 -0.048113152385
          -0.048112522811 0.0096225049347 -0.048113152385 -0.028867512941 0.0096225049347 -0.048113152385
          -0.0096225049347 0.0096225049347 -0.048113152385 0.0096225049347 0.0096225049347 -0.048113152385
          0.028867512941 0.0096225049347 -0.048113152385 0.048112522811 0.0096225049347 -0.048113152385
          -0.048112522811 0.028867512941 -0.048113152385 -0.028867512941 0.028867512941 -0.048113152385
          -0.0096225049347 0.028867512941 -0.048113152385 0.0096225049347 0.028867512941 -0.048113152385
          0.028867512941 0.028867512941 -0.048113152385 0.048112522811 0.028867512941 -0.048113152385
          -0.048112522811 0.048112522811 -0.048113152385 -0.028867512941 0.048112522811 -0.048113152385
          -0.0096225049347 0.048112522811 -0.048113152385 0.0096225049347 0.048112522811 -0.048113152385
          0.028867512941 0.048112522811 -0.048113152385 0.048112522811 0.048112522811 -0.048113152385
          -0.048112522811 -0.048113152385 -0.048112522811 -0.028867512941 -0.048113152385 -0.048112522811
          -0.0096225049347 -0.048113152385 -0.048112522811 0.0096225049347 -0.048113152385 -0.048112522811
          0.028867512941 -0.048113152385 -0.048112522811 0.048112522811 -0.048113152385 -0.048112522811
          -0.048113152385 -0.048112522811 -0.048112522811 0.048113152385 -0.048112522811 -0.048112522811
          -0.048113152385 -0.028867512941 -0.048112522811 0.048113152385 -0.028867512941 -0.048112522811
          -0.048113152385 -0.0096225049347 -0.048112522811 0.048113152385 -0.0096225049347 -0.048112522811
          -0.048113152385 0.0096225049347 -0.048112522811 0.048113152385 0.0096225049347 -0.048112522811
          -0.048113152385 0.028867512941 -0.048112522811 0.048113152385 0.028867512941 -0.048112522811
          -0.048113152385 0.048112522811 -0.048112522811 -0.048112522811 0.048113152385 -0.048112522811
          -0.028867512941 0.048113152385 -0.048112522811 -0.0096225049347 0.048113152385 -0.048112522811
          0.0096225049347 0.048113152385 -0.048112522811 0.028867512941 0.048113152385 -0.048112522811
          0.048113152385 0.048112522811 -0.048112522811 0.048112522811 0.048113152385 -0.048112522811
          -0.048112522811 -0.048113152385 -0.028867512941 -0.028867512941 -0.048113152385 -0.028867512941
          -0.0096225049347 -0.048113152385 -0.028867512941 0.0096225049347 -0.048113152385 -0.028867512941
          0.028867512941 -0.048113152385 -0.028867512941 0.048112522811 -0.048113152385 -0.028867512941
          -0.048113152385 -0.048112522811 -0.028867512941 0.048113152385 -0.048112522811 -0.028867512941
          -0.048113152385 -0.028867512941 -0.028867512941 0.048113152385 -0.028867512941 -0.028867512941
          -0.048113152385 -0.0096225049347 -0.028867512941 0.048113152385 -0.0096225049347 -0.028867512941
          -0.048113152385 0.0096225049347 -0.028867512941 0.048113152385 0.0096225049347 -0.028867512941
          -0.048113152385 0.028867512941 -0.028867512941 0.048113152385 0.028867512941 -0.028867512941
          -0.048113152385 0.048112522811 -0.028867512941 -0.048112522811 0.048113152385 -0.028867512941
          -0.028867512941 0.048113152385 -0.028867512941 -0.0096225049347 0.048113152385 -0.028867512941
          0.0096225049347 0.048113152385 -0.028867512941 0.028867512941 0.048113152385 -0.028867512941
          0.048113152385 0.048112522811 -0.028867512941 0.048112522811 0.048113152385 -0.028867512941
          -0.048112522811 -0.048113152385 -0.0096225049347 -0.028867512941 -0.048113152385 -0.0096225049347
          -0.0096225049347 -0.048113152385 -0.0096225049347 0.0096225049347 -0.048113152385 -0.0096225049347
          0.028867512941 -0.048113152385 -0.0096225049347 0.048112522811 -0.048113152385 -0.0096225049347
          -0.048113152385 -0.048112522811 -0.0096225049347 0.048113152385 -0.048112522811 -0.0096225049347
          -0.048113152385 -0.028867512941 -0.0096225049347 0.048113152385 -0.028867512941 -0.0096225049347
          -0.048113152385 -0.0096225049347 -0.0096225049347 0.048113152385 -0.0096225049347 -0.0096225049347
          -0.048113152385 0.0096225049347 -0.0096225049347 0.048113152385 0.0096225049347 -0.0096225049347
          -0.048113152385 0.028867512941 -0.0096225049347 0.048113152385 0.028867512941 -0.0096225049347
          -0.048113152385 0.048112522811 -0.0096225049347 -0.048112522811 0.048113152385 -0.0096225049347
          -0.028867512941 0.048113152385 -0.0096225049347 -0.0096225049347 0.048113152385 -0.0096225049347
          0.0096225049347 0.048113152385 -0.0096225049347 0.028867512941 0.048113152385 -0.0096225049347
          0.048113152385 0.048112522811 -0.0096225049347 0.048112522811 0.048113152385 -0.0096225049347
          -0.048112522811 -0.048113152385 0.0096225049347 -0.028867512941 -0.048113152385 0.0096225049347
          -0.0096225049347 -0.048113152385 0.0096225049347 0.0096225049347 -0.048113152385 0.0096225049347
          0.028867512941 -0.048113152385 0.0096225049347 0.048112522811 -0.048113152385 0.0096225049347
          -0.048113152385 -0.048112522811 0.0096225049347 0.048113152385 -0.048112522811 0.0096225049347
          -0.048113152385 -0.028867512941 0.0096225049347 0.048113152385 -0.028867512941 0.0096225049347
          -0.048113152385 -0.0096225049347 0.0096225049347 0.048113152385 -0.0096225049347 0.0096225049347
          -0.048113152385 0.0096225049347 0.0096225049347 0.048113152385 0.0096225049347 0.0096225049347
          -0.048113152385 0.028867512941 0.0096225049347 0.048113152385 0.028867512941 0.0096225049347
          -0.048113152385 0.048112522811 0.0096225049347 -0.048112522811 0.048113152385 0.0096225049347
          -0.028867512941 0.048113152385 0.0096225049347 -0.0096225049347 0.048113152385 0.0096225049347
          0.0096225049347 0.048113152385 0.0096225049347 0.028867512941 0.048113152385 0.0096225049347
          0.048113152385 0.048112522811 0.0096225049347 0.048112522811 0.048113152385 0.0096225049347
          -0.048112522811 -0.048113152385 0.028867512941 -0.028867512941 -0.048113152385 0.028867512941
          -0.0096225049347 -0.048113152385 0.028867512941 0.0096225049347 -0.048113152385 0.028867512941
          0.028867512941 -0.048113152385 0.028867512941 0.048112522811 -0.048113152385 0.028867512941
          -0.048113152385 -0.048112522811 0.028867512941 0.048113152385 -0.048112522811 0.028867512941
          -0.048113152385 -0.028867512941 0.028867512941 0.048113152385 -0.028867512941 0.028867512941
          -0.048113152385 -0.0096225049347 0.028867512941 0.048113152385 -0.0096225049347 0.028867512941
          -0.048113152385 0.0096225049347 0.028867512941 0.048113152385 0.0096225049347 0.028867512941
          -0.048113152385 0.028867512941 0.028867512941 0.048113152385 0.028867512941 0.028867512941
          -0.048113152385 0.048112522811 0.028867512941 -0.048112522811 0.048113152385 0.028867512941
          -0.028867512941 0.048113152385 0.028867512941 -0.0096225049347 0.048113152385 0.028867512941
          0.0096225049347 0.048113152385 0.028867512941 0.028867512941 0.048113152385 0.028867512941
          0.048113152385 0.048112522811 0.028867512941 0.048112522811 0.048113152385 0.028867512941
          -0.048112522811 -0.048113152385 0.048112522811 -0.028867512941 -0.048113152385 0.048112522811
          -0.0096225049347 -0.048113152385 0.048112522811 0.0096225049347 -0.048113152385 0.048112522811
          0.028867512941 -0.048113152385 0.048112522811 0.048112522811 -0.048113152385 0.048112522811
          -0.048113152385 -0.048112522811 0.048112522811 -0.048112522811 -0.048112522811 0.048113152385
          -0.028867512941 -0.048112522811 0.048113152385 -0.0096225049347 -0.048112522811 0.048113152385
          0.0096225049347 -0.048112522811 0.048113152385 0.028867512941 -0.048112522811 0.048113152385
          0.048113152385 -0.048112522811 0.048112522811 0.048112522811 -0.048112522811 0.048113152385
          -0.048113152385 -0.028867512941 0.048112522811 -0.048112522811 -0.028867512941 0.048113152385
          -0.028867512941 -0.028867512941 0.048113152385 -0.0096225049347 -0.028867512941 0.048113152385
          0.0096225049347 -0.028867512941 0.048113152385 0.028867512941 -0.028867512941 0.048113152385
          0.048113152385 -0.028867512941 0.048112522811 0.048112522811 -0.028867512941 0.048113152385
          -0.048113152385 -0.0096225049347 0.048112522811 -0.048112522811 -0.0096225049347 0.048113152385
          -0.028867512941 -0.0096225049347 0.048113152385 -0.0096225049347 -0.0096225049347 0.048113152385
          0.0096225049347 -0.0096225049347 0.048113152385 0.028867512941 -0.0096225049347 0.048113152385
          0.048113152385 -0.0096225049347 0.048112522811 0.048112522811 -0.0096225049347 0.048113152385
          -0.048113152385 0.0096225049347 0.048112522811 -0.048112522811 0.0096225049347 0.048113152385
          -0.028867512941 0.0096225049347 0.048113152385 -0.0096225049347 0.0096225049347 0.048113152385
          0.0096225049347 0.0096225049347 0.048113152385 0.028867512941 0.0096225049347 0.048113152385
          0.048113152385 0.0096225049347 0.048112522811 0.048112522811 0.0096225049347 0.048113152385
          -0.048113152385 0.028867512941 0.048112522811 -0.048112522811 0.028867512941 0.048113152385
          -0.028867512941 0.028867512941 0.048113152385 -0.0096225049347 0.028867512941 0.048113152385
          0.0096225049347 0.028867512941 0.048113152385 0.028867512941 0.028867512941 0.048113152385
          0.048113152385 0.028867512941 0.048112522811 0.048112522811 0.028867512941 0.048113152385
          -0.048113152385 0.048112522811 0.048112522811 -0.048112522811 0.048113152385 0.048112522811
          -0.048112522811 0.048112522811 0.048113152385 -0.028867512941 0.048113152385 0.048112522811
          -0.028867512941 0.048112522811 0.048113152385 -0.0096225049347 0.048113152385 0.048112522811
          -0.0096225049347 0.048112522811 0.048113152385 0.0096225049347 0.048113152385 0.048112522811
          0.0096225049347 0.048112522811 0.048113152385 0.028867512941 0.048113152385 0.048112522811
          0.028867512941 0.048112522811 0.048113152385 0.048113152385 0.048112522811 0.048112522811
          0.048112522811 0.048113152385 0.048112522811 0.048112522811 0.048112522811 0.048113152385
          0.018554143608 -0.048112522811 -0.048113152385 0.037799153477 -0.048112522811 -0.048113152385
          0.057044163346 -0.048112522811 -0.048113152385 0.07628916949 -0.048112522811 -0.048113152385
          0.095534183085 -0.048112522811 -0.048113152385 0.11477918923 -0.048112522811 -0.048113152385
          0.018554143608 -0.028867512941 -0.048113152385 0.037799153477 -0.028867512941 -0.048113152385
          0.057044163346 -0.028867512941 -0.048113152385 0.07628916949 -0.028867512941 -0.048113152385
          0.095534183085 -0.028867512941 -0.048113152385 0.11477918923 -0.028867512941 -0.048113152385
          0.018554143608 -0.0096225049347 -0.048113152385 0.037799153477 -0.0096225049347 -0.048113152385
          0.057044163346 -0.0096225049347 -0.048113152385 0.07628916949 -0.0096225049347 -0.048113152385
          0.095534183085 -0.0096225049347 -0.048113152385 0.11477918923 -0.0096225049347 -0.048113152385
          0.018554143608 0.0096225049347 -0.048113152385 0.037799153477 0.0096225049347 -0.048113152385
          0.057044163346 0.0096225049347 -0.048113152385 0.07628916949 0.0096225049347 -0.048113152385
          0.095534183085 0.0096225049347 -0.048113152385 0.11477918923 0.0096225049347 -0.048113152385
          0.018554143608 0.028867512941 -0.048113152385 0.037799153477 0.028867512941 -0.048113152385
          0.057044163346 0.028867512941 -0.048113152385 0.07628916949 0.028867512941 -0.048113152385
          0.095534183085 0.028867512941 -0.048113152385 0.11477918923 0.028867512941 -0.048113152385
          0.018554143608 0.048112522811 -0.048113152385 0.037799153477 0.048112522811 -0.048113152385
          0.057044163346 0.048112522811 -0.048113152385 0.07628916949 0.048112522811 -0.048113152385
          0.095534183085 0.048112522811 -0.048113152385 0.11477918923 0.048112522811 -0.048113152385
          0.018554143608 -0.048113152385 -0.048112522811 0.037799153477 -0.048113152385 -0.048112522811