<?xml version="1.0"?>
<VTKFile type="PolyData" version="0.1" byte_order="LittleEndian" header_type="UInt32" compressor="vtkZLibDataCompressor">
  <PolyData>
    <Piece NumberOfPoints="224" NumberOfVerts="0" NumberOfLines="0" NumberOfStrips="0" NumberOfPolys="440">
      <PointData Scalars="pbColors" Normals="Normals">
        <DataArray type="UInt8" Name="pbColors" NumberOfComponents="3" format="ascii" RangeMin="1" RangeMax="1">
          0 1 0 0 1 0
          0 1 0 0 1 0
          0 1 0 0 1 0
          0 1 0 0 1 0
          0 1 0 0 1 0
          0 1 0 0 1 0
          0 1 0 0 1 0
          0 1 0 0 1 0
          0 1 0 0 1 0
          0 1 0 0 1 0
          0 1 0 0 1 0
          0 1 0 0 1 0
          0 1 0 0 1 0
          0 1 0 0 1 0
          0 1 0 0 1 0
          0 1 0 0 1 0
          0 1 0 0 1 0
          0 1 0 0 1 0
          0 1 0 0 1 0
          0 1 0 0 1 0
          0 1 0 0 1 0
          0 1 0 0 1 0
          0 1 0 0 1 0
          0 1 0 0 1 0
          0 1 0 0 1 0
          0 1 0 0 1 0
          0 1 0 0 1 0
          0 1 0 0 1 0
          0 1 0 0 1 0
          0 1 0 0 1 0
          0 1 0 0 1 0
          0 1 0 0 1 0
          0 1 0 0 1 0
          0 1 0 0 1 0
          0 1 0 0 1 0
          0 1 0 0 1 0
          0 1 0 0 1 0
          0 1 0 0 1 0
          0 1 0 0 1 0
          0 1 0 0 1 0
          0 1 0 0 1 0
          0 1 0 0 1 0
          0 1 0 0 1 0
          0 1 0 0 1 0
          0 1 0 0 1 0
          0 1 0 0 1 0
          0 1 0 0 1 0
          0 1 0 0 1 0
          0 1 0 0 1 0
          0 1 0 0 1 0
          0 1 0 0 1 0
          0 1 0 0 1 0
          0 1 0 0 1 0
          0 1 0 0 1 0
          0 1 0 0 1 0
          0 1 0 0 1 0
          1 0 0 1 0 0
          1 0 0 1 0 0
          1 0 0 1 0 0
          1 0 0 1 0 0
          1 0 0 1 0 0
          1 0 0 1 0 0
          1 0 0 1 0 0
          1 0 0 1 0 0
          1 0 0 1 0 0
          1 0 0 1 0 0
          1 0 0 1 0 0
          1 0 0 1 0 0
          1 0 0 1 0 0
          1 0 0 1 0 0
          1 0 0 1 0 0
          1 0 0 1 0 0
          1 0 0 1 0 0
          1 0 0 1 0 0
          1 0 0 1 0 0
          1 0 0 1 0 0
          1 0 0 1 0 0
          1 0 0 1 0 0
          1 0 0 1 0 0
          1 0 0 1 0 0
          1 0 0 1 0 0
          1 0 0 1 0 0
          1 0 0 1 0 0
          1 0 0 1 0 0
          1 0 0 1 0 0
          1 0 0 1 0 0
          1 0 0 1 0 0
          1 0 0 1 0 0
          1 0 0 1 0 0
          1 0 0 1 0 0
          1 0 0 1 0 0
          1 0 0 1 0 0
          1 0 0 1 0 0
          1 0 0 1 0 0
          1 0 0 1 0 0
          1 0 0 1 0 0
          1 0 0 1 0 0
          1 0 0 1 0 0
          1 0 0 1 0 0
          1 0 0 1 0 0
          1 0 0 1 0 0
          1 0 0 1 0 0
          1 0 0 1 0 0
          1 0 0 1 0 0
          1 0 0 1 0 0
          1 0 0 1 0 0
          1 0 0 1 0 0
          1 0 0 1 0 0
          1 0 0 1 0 0
          1 0 0 1 0 0
          1 0 0 1 0 0
          1 0 0 1 0 0
        </DataArray>
        <DataArray type="Float32" Name="Normals" NumberOfComponents="3" format="ascii" RangeMin="1" RangeMax="1.000000001">
          1 2.4751863748e-05 3.8501293602e-05 2.4751521778e-05 2.4751861929e-05 1
          0 2.4751861929e-05 1 0 2.4751861929e-05 1
          -2.475220208e-05 2.4751861929e-05 1 1 -0 3.8501293602e-05
          2.4751521778e-05 -0 1 0 0 1
          0 0 1 -2.475220208e-05 0 1
          1 -0 3.8501293602e-05 2.4751521778e-05 -0 1
          0 0 1 0 0 1
          -2.475220208e-05 0 1 1 -2.4751863748e-05 3.8501293602e-05
          2.4751521778e-05 -2.4751861929e-05 1 0 -2.4751861929e-05 1
          0 -2.4751861929e-05 1 -2.475220208e-05 -2.4751861929e-05 1
          1 3.8501293602e-05 2.4751863748e-05 2.4751521778e-05 1 2.4751861929e-05
          0 1 2.4751861929e-05 0 1 2.4751861929e-05
          -2.475220208e-05 1 2.4751861929e-05 1 2.4751863748e-05 2.4751863748e-05
          -1 2.475220208e-05 2.475220208e-05 1 -0 2.4751863748e-05
          -1 0 2.475220208e-05 1 -0 2.4751863748e-05
          -1 0 2.475220208e-05 1 -2.4751863748e-05 2.4751863748e-05
          1 -3.8501293602e-05 2.4751863748e-05 2.4751521778e-05 -1 2.4751861929e-05
          0 -1 2.4751861929e-05 0 -1 2.4751861929e-05
          -1 -2.475220208e-05 2.475220208e-05 -2.475220208e-05 -1 2.4751861929e-05
          1 3.8501293602e-05 0 2.4751521778e-05 1 0
          -0 1 -0 -0 1 -0
          -2.475220208e-05 1 -0 1 2.4751863748e-05 0
          -1 2.475220208e-05 -0 1 0 0
          -1 0 0 1 0 0
          -1 0 0 1 -2.4751863748e-05 0
          1 -3.8501293602e-05 0 2.4751521778e-05 -1 0
          0 -1 0 0 -1 0
          -1 -2.475220208e-05 0 -2.475220208e-05 -1 0
          1 3.8501293602e-05 0 2.4751521778e-05 1 0
          -0 1 -0 -0 1 -0
          -2.475220208e-05 1 -0 1 2.4751863748e-05 0
          -1 2.475220208e-05 -0 1 0 0
          -1 0 0 1 0 0
          -1 0 0 1 -2.4751863748e-05 0
          1 -3.8501293602e-05 0 2.4751521778e-05 -1 0
          0 -1 0 0 -1 0
          -1 -2.475220208e-05 0 -2.475220208e-05 -1 0
          1 3.8501293602e-05 -2.4751863748e-05 2.4751521778e-05 1 -2.4751861929e-05
          -0 1 -2.4751861929e-05 -0 1 -2.4751861929e-05
          -2.475220208e-05 1 -2.4751861929e-05 1 2.4751863748e-05 -2.4751863748e-05
          1 2.4751863748e-05 -3.8501293602e-05 2.4751521778e-05 2.4751861929e-05 -1
          -0 2.4751861929e-05 -1 -0 2.4751861929e-05 -1
          -1 2.475220208e-05 -2.475220208e-05 -2.475220208e-05 2.4751861929e-05 -1
          1 0 -2.4751863748e-05 1 0 -3.8501293602e-05
          2.4751521778e-05 0 -1 0 0 -1
          0 0 -1 -1 0 -2.475220208e-05
          -2.475220208e-05 0 -1 1 0 -2.4751863748e-05
          1 0 -3.8501293602e-05 2.4751521778e-05 0 -1
          0 0 -1 0 0 -1
          -1 0 -2.475220208e-05 -2.475220208e-05 0 -1
          1 -2.4751863748e-05 -2.4751863748e-05 1 -3.8501293602e-05 -2.4751863748e-05
          1 -2.4751863748e-05 -3.8501293602e-05 2.4751521778e-05 -1 -2.4751861929e-05
          2.4751521778e-05 -2.4751861929e-05 -1 0 -1 -2.4751861929e-05
          0 -2.4751861929e-05 -1 0 -1 -2.4751861929e-05
          0 -2.4751861929e-05 -1 -1 -2.475220208e-05 -2.475220208e-05
          -2.475220208e-05 -1 -2.4751861929e-05 -2.475220208e-05 -2.4751861929e-05 -1
          2.475220208e-05 2.4751861929e-05 1 0 2.4751861929e-05 1
          0 2.4751861929e-05 1 -2.4751521778e-05 2.4751861929e-05 1
          -1 2.4751863748e-05 3.8501293602e-05 2.475220208e-05 -0 1
          0 0 1 0 0 1
          -2.4751521778e-05 0 1 -1 0 3.8501293602e-05
          2.475220208e-05 -0 1 0 0 1
          0 0 1 -2.4751521778e-05 0 1
          -1 0 3.8501293602e-05 2.475220208e-05 -2.4751861929e-05 1
          0 -2.4751861929e-05 1 0 -2.4751861929e-05 1
          -2.4751521778e-05 -2.4751861929e-05 1 -1 -2.4751863748e-05 3.8501293602e-05
          2.475220208e-05 1 2.4751861929e-05 0 1 2.4751861929e-05
          0 1 2.4751861929e-05 -2.4751521778e-05 1 2.4751861929e-05
          -1 3.8501293602e-05 2.4751863748e-05 1 2.475220208e-05 2.475220208e-05
          -1 2.4751863748e-05 2.4751863748e-05 1 -0 2.475220208e-05
          -1 0 2.4751863748e-05 1 -0 2.475220208e-05
          -1 0 2.4751863748e-05 1 -2.475220208e-05 2.475220208e-05
          2.475220208e-05 -1 2.4751861929e-05 0 -1 2.4751861929e-05
          0 -1 2.4751861929e-05 -2.4751521778e-05 -1 2.4751861929e-05
          -1 -2.4751863748e-05 2.4751863748e-05 -1 -3.8501293602e-05 2.4751863748e-05
          2.475220208e-05 1 0 -0 1 -0
          -0 1 -0 -2.4751521778e-05 1 -0
          -1 3.8501293602e-05 -0 1 2.475220208e-05 0
          -1 2.4751863748e-05 -0 1 0 0
          -1 0 0 1 0 0
          -1 0 0 1 -2.475220208e-05 0
          2.475220208e-05 -1 0 0 -1 0
          0 -1 0 -2.4751521778e-05 -1 0
          -1 -2.4751863748e-05 0 -1 -3.8501293602e-05 0
          2.475220208e-05 1 0 -0 1 -0
          -0 1 -0 -2.4751521778e-05 1 -0
          -1 3.8501293602e-05 -0 1 2.475220208e-05 0
          -1 2.4751863748e-05 -0 1 0 0
          -1 0 0 1 0 0
          -1 0 0 1 -2.475220208e-05 0
          2.475220208e-05 -1 0 0 -1 0
          0 -1 0 -2.4751521778e-05 -1 0
          -1 -2.4751863748e-05 0 -1 -3.8501293602e-05 0
          2.475220208e-05 1 -2.4751861929e-05 -0 1 -2.4751861929e-05
          -0 1 -2.4751861929e-05 -2.4751521778e-05 1 -2.4751861929e-05
          -1 3.8501293602e-05 -2.4751863748e-05 1 2.475220208e-05 -2.475220208e-05
          2.475220208e-05 2.4751861929e-05 -1 -0 2.4751861929e-05 -1
          -0 2.4751861929e-05 -1 -2.4751521778e-05 2.4751861929e-05 -1
          -1 2.4751863748e-05 -2.4751863748e-05 -1 2.4751863748e-05 -3.8501293602e-05
          1 0 -2.475220208e-05 2.475220208e-05 0 -1
          0 0 -1 0 0 -1
          -2.4751521778e-05 0 -1 -1 0 -2.4751863748e-05
          -1 0 -3.8501293602e-05 1 0 -2.475220208e-05
          2.475220208e-05 0 -1 0 0 -1
          0 0 -1 -2.4751521778e-05 0 -1
          -1 0 -2.4751863748e-05 -1 0 -3.8501293602e-05
          1 -2.475220208e-05 -2.475220208e-05 2.475220208e-05 -1 -2.4751861929e-05
          2.475220208e-05 -2.4751861929e-05 -1 0 -1 -2.4751861929e-05
          0 -2.4751861929e-05 -1 0 -1 -2.4751861929e-05
          0 -2.4751861929e-05 -1 -2.4751521778e-05 -1 -2.4751861929e-05
          -2.4751521778e-05 -2.4751861929e-05 -1 -1 -2.4751863748e-05 -2.4751863748e-05
          -1 -3.8501293602e-05 -2.4751863748e-05 -1 -2.4751863748e-05 -3.8501293602e-05
        </DataArray>
      </PointData>
      <CellData>
      </CellData>
      <Points>
        <DataArray type="Float32" Name="Points" NumberOfComponents="3" format="ascii" RangeMin="0.021858337651" RangeMax="0.12414156309">
          -0.050000000745 -0.029999999329 -0.030000275001 -0.029999999329 -0.029999999329 -0.050000000745
          -0.0099999997765 -0.029999999329 -0.050000000745 0.010000000708 -0.029999999329 -0.050000000745
          0.030000001192 -0.029999999329 -0.050000000745 -0.050000000745 -0.0099999997765 -0.030000275001
          -0.029999999329 -0.0099999997765 -0.050000000745 -0.0099999997765 -0.0099999997765 -0.050000000745
          0.010000000708 -0.0099999997765 -0.050000000745 0.030000001192 -0.0099999997765 -0.050000000745
          -0.050000000745 0.0099999997765 -0.030000275001 -0.029999999329 0.0099999997765 -0.050000000745
          -0.0099999997765 0.0099999997765 -0.050000000745 0.010000000708 0.0099999997765 -0.050000000745
          0.030000001192 0.0099999997765 -0.050000000745 -0.050000000745 0.029999999329 -0.030000275001
          -0.029999999329 0.029999999329 -0.050000000745 -0.0099999997765 0.029999999329 -0.050000000745
          0.010000000708 0.029999999329 -0.050000000745 0.030000001192 0.029999999329 -0.050000000745
          -0.050000000745 -0.030000275001 -0.029999999329 -0.029999999329 -0.050000000745 -0.029999999329
          -0.0099999997765 -0.050000000745 -0.029999999329 0.010000000708 -0.050000000745 -0.029999999329
          0.030000001192 -0.050000000745 -0.029999999329 -0.050000000745 -0.029999999329 -0.029999999329
          0.049999725074 -0.029999999329 -0.029999999329 -0.050000000745 -0.0099999997765 -0.029999999329
          0.049999725074 -0.0099999997765 -0.029999999329 -0.050000000745 0.0099999997765 -0.029999999329
          0.049999725074 0.0099999997765 -0.029999999329 -0.050000000745 0.029999999329 -0.029999999329
          -0.050000000745 0.030000275001 -0.029999999329 -0.029999999329 0.050000000745 -0.029999999329
          -0.0099999997765 0.050000000745 -0.029999999329 0.010000000708 0.050000000745 -0.029999999329
          0.049999725074 0.029999999329 -0.029999999329 0.030000001192 0.050000000745 -0.029999999329
          -0.050000000745 -0.030000275001 -0.0099999997765 -0.029999999329 -0.050000000745 -0.0099999997765
          -0.0099999997765 -0.050000000745 -0.0099999997765 0.010000000708 -0.050000000745 -0.0099999997765
          0.030000001192 -0.050000000745 -0.0099999997765 -0.050000000745 -0.029999999329 -0.0099999997765
          0.049999725074 -0.029999999329 -0.0099999997765 -0.050000000745 -0.0099999997765 -0.0099999997765
          0.049999725074 -0.0099999997765 -0.0099999997765 -0.050000000745 0.0099999997765 -0.0099999997765
          0.049999725074 0.0099999997765 -0.0099999997765 -0.050000000745 0.029999999329 -0.0099999997765
          -0.050000000745 0.030000275001 -0.0099999997765 -0.029999999329 0.050000000745 -0.0099999997765
          -0.0099999997765 0.050000000745 -0.0099999997765 0.010000000708 0.050000000745 -0.0099999997765
          0.049999725074 0.029999999329 -0.0099999997765 0.030000001192 0.050000000745 -0.0099999997765
          -0.050000000745 -0.030000275001 0.0099999997765 -0.029999999329 -0.050000000745 0.0099999997765
          -0.0099999997765 -0.050000000745 0.0099999997765 0.010000000708 -0.050000000745 0.0099999997765
          0.030000001192 -0.050000000745 0.0099999997765 -0.050000000745 -0.029999999329 0.0099999997765
          0.049999725074 -0.029999999329 0.0099999997765 -0.050000000745 -0.0099999997765 0.0099999997765
          0.049999725074 -0.0099999997765 0.0099999997765 -0.050000000745 0.0099999997765 0.0099999997765
          0.049999725074 0.0099999997765 0.0099999997765 -0.050000000745 0.029999999329 0.0099999997765
          -0.050000000745 0.030000275001 0.0099999997765 -0.029999999329 0.050000000745 0.0099999997765
          -0.0099999997765 0.050000000745 0.0099999997765 0.010000000708 0.050000000745 0.0099999997765
          0.049999725074 0.029999999329 0.0099999997765 0.030000001192 0.050000000745 0.0099999997765
          -0.050000000745 -0.030000275001 0.029999999329 -0.029999999329 -0.050000000745 0.029999999329
          -0.0099999997765 -0.050000000745 0.029999999329 0.010000000708 -0.050000000745 0.029999999329
          0.030000001192 -0.050000000745 0.029999999329 -0.050000000745 -0.029999999329 0.029999999329
          -0.050000000745 -0.029999999329 0.030000275001 -0.029999999329 -0.029999999329 0.050000000745
          -0.0099999997765 -0.029999999329 0.050000000745 0.010000000708 -0.029999999329 0.050000000745
          0.049999725074 -0.029999999329 0.029999999329 0.030000001192 -0.029999999329 0.050000000745
          -0.050000000745 -0.0099999997765 0.029999999329 -0.050000000745 -0.0099999997765 0.030000275001
          -0.029999999329 -0.0099999997765 0.050000000745 -0.0099999997765 -0.0099999997765 0.050000000745
          0.010000000708 -0.0099999997765 0.050000000745 0.049999725074 -0.0099999997765 0.029999999329
          0.030000001192 -0.0099999997765 0.050000000745 -0.050000000745 0.0099999997765 0.029999999329
          -0.050000000745 0.0099999997765 0.030000275001 -0.029999999329 0.0099999997765 0.050000000745
          -0.0099999997765 0.0099999997765 0.050000000745 0.010000000708 0.0099999997765 0.050000000745
          0.049999725074 0.0099999997765 0.029999999329 0.030000001192 0.0099999997765 0.050000000745
          -0.050000000745 0.029999999329 0.029999999329 -0.050000000745 0.030000275001 0.029999999329
          -0.050000000745 0.029999999329 0.030000275001 -0.029999999329 0.050000000745 0.029999999329
          -0.029999999329 0.029999999329 0.050000000745 -0.0099999997765 0.050000000745 0.029999999329
          -0.0099999997765 0.029999999329 0.050000000745 0.010000000708 0.050000000745 0.029999999329
          0.010000000708 0.029999999329 0.050000000745 0.049999725074 0.029999999329 0.029999999329
          0.030000001192 0.050000000745 0.029999999329 0.030000001192 0.029999999329 0.050000000745
          0.036666665226 -0.029999999329 -0.050000000745 0.056666664779 -0.029999999329 -0.050000000745
          0.076666668057 -0.029999999329 -0.050000000745 0.096666663885 -0.029999999329 -0.050000000745
          0.11666666716 -0.029999999329 -0.030000275001 0.036666665226 -0.0099999997765 -0.050000000745
          0.056666664779 -0.0099999997765 -0.050000000745 0.076666668057 -0.0099999997765 -0.050000000745
          0.096666663885 -0.0099999997765 -0.050000000745 0.11666666716 -0.0099999997765 -0.030000275001
          0.036666665226 0.0099999997765 -0.050000000745 0.056666664779 0.0099999997765 -0.050000000745
          0.076666668057 0.0099999997765 -0.050000000745 0.096666663885 0.0099999997765 -0.050000000745
          0.11666666716 0.0099999997765 -0.030000275001 0.036666665226 0.029999999329 -0.050000000745
          0.056666664779 0.029999999329 -0.050000000745 0.076666668057 0.029999999329 -0.050000000745
          0.096666663885 0.029999999329 -0.050000000745 0.11666666716 0.029999999329 -0.030000275001
          0.036666665226 -0.050000000745 -0.029999999329 0.056666664779 -0.050000000745 -0.029999999329
          0.076666668057 -0.050000000745 -0.029999999329 0.096666663885 -0.050000000745 -0.029999999329
          0.11666666716 -0.030000275001 -0.029999999329 0.016666941345 -0.029999999329 -0.029999999329
          0.11666666716 -0.029999999329 -0.029999999329 0.016666941345 -0.0099999997765 -0.029999999329
          0.11666666716 -0.0099999997765 -0.029999999329 0.016666941345 0.0099999997765 -0.029999999329
          0.11666666716 0.0099999997765 -0.029999999329 0.016666941345 0.029999999329 -0.029999999329
          0.036666665226 0.050000000745 -0.029999999329 0.056666664779 0.050000000745 -0.029999999329
          0.076666668057 0.050000000745 -0.029999999329 0.096666663885 0.050000000745 -0.029999999329
          0.11666666716 0.029999999329 -0.029999999329 0.11666666716 0.030000275001 -0.029999999329
          0.036666665226 -0.050000000745 -0.0099999997765 0.056666664779 -0.050000000745 -0.0099999997765
          0.076666668057 -0.050000000745 -0.0099999997765 0.096666663885 -0.050000000745 -0.0099999997765
          0.11666666716 -0.030000275001 -0.0099999997765 0.016666941345 -0.029999999329 -0.0099999997765
          0.11666666716 -0.029999999329 -0.0099999997765 0.016666941345 -0.0099999997765 -0.0099999997765
          0.11666666716 -0.0099999997765 -0.0099999997765 0.016666941345 0.0099999997765 -0.0099999997765
          0.11666666716 0.0099999997765 -0.0099999997765 0.016666941345 0.029999999329 -0.0099999997765
          0.036666665226 0.050000000745 -0.0099999997765 0.056666664779 0.050000000745 -0.0099999997765
          0.076666668057 0.050000000745 -0.0099999997765 0.096666663885 0.050000000745 -0.0099999997765
          0.11666666716 0.029999999329 -0.0099999997765 0.11666666716 0.030000275001 -0.0099999997765
          0.036666665226 -0.050000000745 0.0099999997765 0.056666664779 -0.050000000745 0.0099999997765
          0.076666668057 -0.050000000745 0.0099999997765 0.096666663885 -0.050000000745 0.0099999997765
          0.11666666716 -0.030000275001 0.0099999997765 0.016666941345 -0.029999999329 0.0099999997765
          0.11666666716 -0.029999999329 0.0099999997765 0.016666941345 -0.0099999997765 0.0099999997765
          0.11666666716 -0.0099999997765 0.0099999997765 0.016666941345 0.0099999997765 0.0099999997765
          0.11666666716 0.0099999997765 0.0099999997765 0.016666941345 0.029999999329 0.0099999997765
          0.036666665226 0.050000000745 0.0099999997765 0.056666664779 0.050000000745 0.0099999997765
          0.076666668057 0.050000000745 0.0099999997765 0.096666663885 0.050000000745 0.0099999997765
          0.11666666716 0.029999999329 0.0099999997765 0.11666666716 0.030000275001 0.0099999997765
          0.036666665226 -0.050000000745 0.029999999329 0.056666664779 -0.050000000745 0.029999999329
          0.076666668057 -0.050000000745 0.029999999329 0.096666663885 -0.050000000745 0.029999999329
          0.11666666716 -0.030000275001 0.029999999329 0.016666941345 -0.029999999329 0.029999999329
          0.036666665226 -0.029999999329 0.050000000745 0.056666664779 -0.029999999329 0.050000000745
          0.076666668057 -0.029999999329 0.050000000745 0.096666663885 -0.029999999329 0.050000000745
          0.11666666716 -0.029999999329 0.029999999329 0.11666666716 -0.029999999329 0.030000275001
          0.016666941345 -0.0099999997765 0.029999999329 0.036666665226 -0.0099999997765 0.050000000745
          0.056666664779 -0.0099999997765 0.050000000745 0.076666668057 -0.0099999997765 0.050000000745
          0.096666663885 -0.0099999997765 0.050000000745 0.11666666716 -0.0099999997765 0.029999999329
          0.11666666716 -0.0099999997765 0.030000275001 0.016666941345 0.0099999997765 0.029999999329
          0.036666665226 0.0099999997765 0.050000000745 0.056666664779 0.0099999997765 0.050000000745
          0.076666668057 0.0099999997765 0.050000000745 0.096666663885 0.0099999997765 0.050000000745
          0.11666666716 0.0099999997765 0.029999999329 0.11666666716 0.0099999997765 0.030000275001
          0.016666941345 0.029999999329 0.029999999329 0.036666665226 0.050000000745 0.029999999329
          0.036666665226 0.029999999329 0.050000000745 0.056666664779 0.050000000745 0.029999999329
          0.056666664779 0.029999999329 0.050000000745 0.076666668057 0.050000000745 0.029999999329
          0.076666668057 0.029999999329 0.050000000745 0.096666663885 0.050000000745 0.029999999329
          0.096666663885 0.029999999329 0.050000000745 0.11666666716 0.029999999329 0.029999999329
          0.11666666716 0.030000275001 0.029999999329 0.11666666716 0.029999999329 0.030000275001
        </DataArray>
      </Points>
      <Verts>
        <DataArray type="Int64" Name="connectivity" format="ascii" RangeMin="1e+299" RangeMax="-1e+299">
        </DataArray>
        <DataArray type="Int64" Name="offsets" format="ascii" RangeMin="1e+299" RangeMax="-1e+299">
        </DataArray>
      </Verts>
      <Lines>
        <DataArray type="Int64" Name="connectivity" format="ascii" RangeMin="1e+299" RangeMax="-1e+299">
        </DataArray>
        <DataArray type="Int64" Name="offsets" format="ascii" RangeMin="1e+299" RangeMax="-1e+299">
        </DataArray>
      </Lines>
      <Strips>
        <DataArray type="Int64" Name="connectivity" format="ascii" RangeMin="1e+299" RangeMax="-1e+299">
        </DataArray>
        <DataArray type="Int64" Name="offsets" format="ascii" RangeMin="1e+299" RangeMax="-1e+299">
        </DataArray>
      </Strips>
      <Polys>
        <DataArray type="Int64" Name="connectivity" format="ascii" RangeMin="0" RangeMax="223">
          0 25 20 0 21 1
          20 21 0 1 22 2
          21 22 1 2 23 3
          22 23 2 3 24 4
          23 24 3 24 26 4
          5 25 0 27 25 5
          1 6 0 6 5 0
          2 7 1 7 6 1
          3 8 2 8 7 2
          4 9 3 9 8 3
          28 4 26 9 4 28
          10 27 5 29 27 10
          6 11 5 11 10 5
          7 12 6 12 11 6
          8 13 7 13 12 7
          9 14 8 14 13 8
          30 9 28 14 9 30
          15 29 10 31 29 15
          11 16 10 16 15 10
          12 17 11 17 16 11
          13 18 12 18 17 12
          14 19 13 19 18 13
          36 14 30 19 14 36
          15 32 31 16 32 15
          33 32 16 17 33 16
          34 33 17 18 34 17
          35 34 18 19 35 18
          37 35 19 36 37 19
          20 43 38 25 43 20
          21 20 39 20 38 39
          22 21 40 21 39 40
          23 22 41 22 40 41
          24 23 42 23 41 42
          42 26 24 44 26 42
          25 27 43 43 27 45
          26 44 28 44 46 28
          27 29 45 45 29 47
          28 46 30 46 48 30
          29 31 47 47 31 49
          30 48 36 48 54 36
          31 50 49 32 50 31
          33 51 32 32 51 50
          34 52 33 33 52 51
          35 53 34 34 53 52
          37 55 35 35 55 53
          54 37 36 55 37 54
          38 61 56 43 61 38
          39 38 57 38 56 57
          40 39 58 39 57 58
          41 40 59 40 58 59
          42 41 60 41 59 60
          60 44 42 62 44 60
          43 45 61 61 45 63
          44 62 46 62 64 46
          45 47 63 63 47 65
          46 64 48 64 66 48
          47 49 65 65 49 67
          48 66 54 66 72 54
          49 68 67 50 68 49
          51 69 50 50 69 68
          52 70 51 51 70 69
          53 71 52 52 71 70
          55 73 53 53 73 71
          72 55 54 73 55 72
          56 79 74 61 79 56
          57 56 75 56 74 75
          58 57 76 57 75 76
          59 58 77 58 76 77
          60 59 78 59 77 78
          78 62 60 84 62 78
          61 63 79 79 63 86
          62 84 64 84 91 64
          63 65 86 86 65 93
          64 91 66 91 98 66
          65 67 93 93 67 100
          66 98 72 98 109 72
          67 101 100 68 101 67
          69 103 68 68 103 101
          70 105 69 69 105 103
          71 107 70 70 107 105
          73 110 71 71 110 107
          109 73 72 110 73 109
          74 79 80 74 81 75
          80 81 74 75 82 76
          81 82 75 76 83 77
          82 83 76 77 85 78
          83 85 77 78 85 84
          80 86 87 79 86 80
          81 80 88 88 80 87
          82 81 89 89 81 88
          83 82 90 90 82 89
          85 83 92 92 83 90
          84 92 91 85 92 84
          87 93 94 86 93 87
          88 87 95 95 87 94
          89 88 96 96 88 95
          90 89 97 97 89 96
          92 90 99 99 90 97
          91 99 98 92 99 91
          94 100 102 93 100 94
          95 94 104 104 94 102
          96 95 106 106 95 104
          97 96 108 108 96 106
          99 97 111 111 97 108
          98 111 109 99 111 98
          100 101 102 103 102 101
          104 102 103 105 104 103
          106 104 105 107 106 105
          108 106 107 110 108 107
          111 108 110 109 111 110
          112 137 132 112 133 113
          132 133 112 113 134 114
          133 134 113 114 135 115
          134 135 114 115 136 116
          135 136 115 136 138 116
          117 137 112 139 137 117
          113 118 112 118 117 112
          114 119 113 119 118 113
          115 120 114 120 119 114
          116 121 115 121 120 115
          140 116 138 121 116 140
          122 139 117 141 139 122
          118 123 117 123 122 117
          119 124 118 124 123 118
          120 125 119 125 124 119
          121 126 120 126 125 120
          142 121 140 126 121 142
          127 141 122 143 141 127
          123 128 122 128 127 122
          124 129 123 129 128 123
          125 130 124 130 129 124
          126 131 125 131 130 125
          148 126 142 131 126 148
          127 144 143 128 144 127
          145 144 128 129 145 128
          146 145 129 130 146 129
          147 146 130 131 147 130
          149 147 131 148 149 131
          132 155 150 137 155 132
          133 132 151 132 150 151
          134 133 152 133 151 152
          135 134 153 134 152 153
          136 135 154 135 153 154
          154 138 136 156 138 154
          137 139 155 155 139 157
          138 156 140 156 158 140
          139 141 157 157 141 159
          140 158 142 158 160 142
          141 143 159 159 143 161
          142 160 148 160 166 148
          143 162 161 144 162 143
          145 163 144 144 163 162
          146 164 145 145 164 163
          147 165 146 146 165 164
          149 167 147 147 167 165
          166 149 148 167 149 166
          150 173 168 155 173 150
          151 150 169 150 168 169
          152 151 170 151 169 170
          153 152 171 152 170 171
          154 153 172 153 171 172
          172 156 154 174 156 172
          155 157 173 173 157 175
          156 174 158 174 176 158
          157 159 175 175 159 177
          158 176 160 176 178 160
          159 161 177 177 161 179
          160 178 166 178 184 166
          161 180 179 162 180 161
          163 181 162 162 181 180
          164 182 163 163 182 181
          165 183 164 164 183 182
          167 185 165 165 185 183
          184 167 166 185 167 184
          168 191 186 173 191 168
          169 168 187 168 186 187
          170 169 188 169 187 188
          171 170 189 170 188 189
          172 171 190 171 189 190
          190 174 172 196 174 190
          173 175 191 191 175 198
          174 196 176 196 203 176
          175 177 198 198 177 205
          176 203 178 203 210 178
          177 179 205 205 179 212
          178 210 184 210 221 184
          179 213 212 180 213 179
          181 215 180 180 215 213
          182 217 181 181 217 215
          183 219 182 182 219 217
          185 222 183 183 222 219
          221 185 184 222 185 221
          186 191 192 186 193 187
          192 193 186 187 194 188
          193 194 187 188 195 189
          194 195 188 189 197 190
          195 197 189 190 197 196
          192 198 199 191 198 192
          193 192 200 200 192 199
          194 193 201 201 193 200
          195 194 202 202 194 201
          197 195 204 204 195 202
          196 204 203 197 204 196
          199 205 206 198 205 199
          200 199 207 207 199 206
          201 200 208 208 200 207
          202 201 209 209 201 208
          204 202 211 211 202 209
          203 211 210 204 211 203
          206 212 214 205 212 206
          207 206 216 216 206 214
          208 207 218 218 207 216
          209 208 220 220 208 218
          211 209 223 223 209 220
          210 223 221 211 223 210
          212 213 214 215 214 213
          216 214 215 217 216 215
          218 216 217 219 218 217
          220 218 219 222 220 219
          223 220 222 221 223 222
        </DataArray>
        <DataArray type="Int64" Name="offsets" format="ascii" RangeMin="3" RangeMax="1320">
          3 6 9 12 15 18
          21 24 27 30 33 36
          39 42 45 48 51 54
          57 60 63 66 69 72
          75 78 81 84 87 90
          93 96 99 102 105 108
          111 114 117 120 123 126
          129 132 135 138 141 144
          147 150 153 156 159 162
          165 168 171 174 177 180
          183 186 189 192 195 198
          201 204 207 210 213 216
          219 222 225 228 231 234
          237 240 243 246 249 252
          255 258 261 264 267 270
          273 276 279 282 285 288
          291 294 297 300 303 306
          309 312 315 318 321 324
          327 330 333 336 339 342
          345 348 351 354 357 360
          363 366 369 372 375 378
          381 384 387 390 393 396
          399 402 405 408 411 414
          417 420 423 426 429 432
          435 438 441 444 447 450
          453 456 459 462 465 468
          471 474 477 480 483 486
          489 492 495 498 501 504